  -0.000000000000040   22.888274966463548   22.888274966463527    0.000000000000004    4.078987845025735  -26.967569099519682    0.000000000000004  -26.967569099520002    4.078987845025724 