3.638020000000000032e+00 1.571099999999999941e+00 1.760000000000000009e+00 2.636197999999999908e+01 1.571099999999999941e+00 1.760000000000000009e+00 3.958279999999999799e+00 2.554120000000000168e+00 1.743919999999999915e+00 2.636130000000000084e+00 1.667280000000000095e+00 1.764930000000000110e+00 2.609174000000000149e+01 9.941799999999999526e-01 2.561040000000000205e+00 2.609550000000000125e+01 9.908000000000000140e-01 9.607200000000000184e-01
