-7.190720000000000445e-01 2.472755999999999954e+00 -3.087200000000000014e-02 -1.075376000000000110e+00 -2.334989000000000203e+00 1.508499999999999945e-02 -8.101429999999999465e-01 -2.365155999999999814e+00 3.894199999999999745e-02 1.525263000000000035e+00 -1.073589999999999961e-01 -8.087000000000000438e-03 5.456469999999999931e-01 1.167904000000000053e+00 -1.728482999999999992e+00 5.336800000000000432e-01 1.166843000000000075e+00 1.713413999999999993e+00
