-2.149692770981956436e+00 -1.273511280377120691e+00 3.104994752011175016e-02 -1.273511280377120691e+00 -3.731302105924310997e+00 4.036071875748582782e-02 3.104994752011175016e-02 4.036071875748582782e-02 -2.793905454197735061e+00
