  2.63613000000   1.66728000000   1.76493000000  26.09174000000   0.99418000000   2.56104000000  26.09550000000   0.99080000000   0.96072000000 