   0.000000000000028   22.888274966462248   22.888274966462156    0.000000000000011    4.078987845024957  -26.967569099517672   -0.000000000000005  -26.967569099517831    4.078987845025029 