   0.000000239250204   -0.000000006882263    0.000000000042641   -0.008888256493094    0.007989975251264    3.783021018904811    0.008888256490811   -0.007989975251109   -3.783021018904307 